ITEM: TIMESTEP
0
ITEM: NUMBER OF ATOMS
16000
ITEM: BOX BOUNDS pp pp pp
0 64.80
0 64.80
0 64.80
ITEM: ATOMS id type x y z
1 2 0.00 0.00 0.00
2 2 0.00 0.00 3.24
3 4 0.00 0.00 6.48
4 2 0.00 0.00 9.72
5 4 0.00 0.00 12.96
6 4 0.00 0.00 16.20
7 4 0.00 0.00 19.44
8 3 0.00 0.00 22.68
9 4 0.00 0.00 25.92
10 2 0.00 0.00 29.16
11 3 0.00 0.00 32.40
12 2 0.00 0.00 35.64
13 2 0.00 0.00 38.88
14 4 0.00 0.00 42.12
15 3 0.00 0.00 45.36
16 4 0.00 0.00 48.60
17 2 0.00 0.00 51.84
18 3 0.00 0.00 55.08
19 4 0.00 0.00 58.32
20 4 0.00 0.00 61.56
21 3 3.24 0.00 0.00
22 4 3.24 0.00 3.24
23 3 3.24 0.00 6.48
24 2 3.24 0.00 9.72
25 3 3.24 0.00 12.96
26 4 3.24 0.00 16.20
27 4 3.24 0.00 19.44
28 2 3.24 0.00 22.68
29 3 3.24 0.00 25.92
30 2 3.24 0.00 29.16
31 3 3.24 0.00 32.40
32 2 3.24 0.00 35.64
33 3 3.24 0.00 38.88
34 2 3.24 0.00 42.12
35 3 3.24 0.00 45.36
36 2 3.24 0.00 48.60
37 3 3.24 0.00 51.84
38 3 3.24 0.00 55.08
39 3 3.24 0.00 58.32
40 3 3.24 0.00 61.56
41 2 6.48 0.00 0.00
42 4 6.48 0.00 3.24
43 4 6.48 0.00 6.48
44 2 6.48 0.00 9.72
45 2 6.48 0.00 12.96
46 3 6.48 0.00 16.20
47 3 6.48 0.00 19.44
48 3 6.48 0.00 22.68
49 3 6.48 0.00 25.92
50 2 6.48 0.00 29.16
51 3 6.48 0.00 32.40
52 3 6.48 0.00 35.64
53 2 6.48 0.00 38.88
54 3 6.48 0.00 42.12
55 4 6.48 0.00 45.36
56 4 6.48 0.00 48.60
57 4 6.48 0.00 51.84
58 3 6.48 0.00 55.08
59 2 6.48 0.00 58.32
60 2 6.48 0.00 61.56
61 3 9.72 0.00 0.00
62 3 9.72 0.00 3.24
63 3 9.72 0.00 6.48
64 2 9.72 0.00 9.72
65 3 9.72 0.00 12.96
66 3 9.72 0.00 16.20
67 4 9.72 0.00 19.44
68 4 9.72 0.00 22.68
69 2 9.72 0.00 25.92
70 3 9.72 0.00 29.16
71 3 9.72 0.00 32.40
72 4 9.72 0.00 35.64
73 2 9.72 0.00 38.88
74 3 9.72 0.00 42.12
75 4 9.72 0.00 45.36
76 2 9.72 0.00 48.60
77 3 9.72 0.00 51.84
78 4 9.72 0.00 55.08
79 4 9.72 0.00 58.32
80 4 9.72 0.00 61.56
81 4 12.96 0.00 0.00
82 2 12.96 0.00 3.24
83 3 12.96 0.00 6.48
84 4 12.96 0.00 9.72
85 2 12.96 0.00 12.96
86 4 12.96 0.00 16.20
87 2 12.96 0.00 19.44
88 4 12.96 0.00 22.68
89 4 12.96 0.00 25.92
90 2 12.96 0.00 29.16
91 2 12.96 0.00 32.40
92 4 12.96 0.00 35.64
93 2 12.96 0.00 38.88
94 2 12.96 0.00 42.12
95 3 12.96 0.00 45.36
96 2 12.96 0.00 48.60
97 3 12.96 0.00 51.84
98 2 12.96 0.00 55.08
99 3 12.96 0.00 58.32
100 3 12.96 0.00 61.56
101 3 16.20 0.00 0.00
102 2 16.20 0.00 3.24
103 4 16.20 0.00 6.48
104 3 16.20 0.00 9.72
105 3 16.20 0.00 12.96
106 2 16.20 0.00 16.20
107 4 16.20 0.00 19.44
108 4 16.20 0.00 22.68
109 4 16.20 0.00 25.92
110 3 16.20 0.00 29.16
111 4 16.20 0.00 32.40
112 3 16.20 0.00 35.64
113 3 16.20 0.00 38.88
114 3 16.20 0.00 42.12
115 4 16.20 0.00 45.36
116 3 16.20 0.00 48.60
117 4 16.20 0.00 51.84
118 2 16.20 0.00 55.08
119 4 16.20 0.00 58.32
120 2 16.20 0.00 61.56
121 3 19.44 0.00 0.00
122 4 19.44 0.00 3.24
123 3 19.44 0.00 6.48
124 2 19.44 0.00 9.72
125 2 19.44 0.00 12.96
126 4 19.44 0.00 16.20
127 3 19.44 0.00 19.44
128 3 19.44 0.00 22.68
129 2 19.44 0.00 25.92
130 3 19.44 0.00 29.16
131 2 19.44 0.00 32.40
132 3 19.44 0.00 35.64
133 3 19.44 0.00 38.88
134 4 19.44 0.00 42.12
135 3 19.44 0.00 45.36
136 4 19.44 0.00 48.60
137 4 19.44 0.00 51.84
138 3 19.44 0.00 55.08
139 3 19.44 0.00 58.32
140 4 19.44 0.00 61.56
141 4 22.68 0.00 0.00
142 3 22.68 0.00 3.24
143 3 22.68 0.00 6.48
144 4 22.68 0.00 9.72
145 4 22.68 0.00 12.96
146 4 22.68 0.00 16.20
147 2 22.68 0.00 19.44
148 3 22.68 0.00 22.68
149 3 22.68 0.00 25.92
150 3 22.68 0.00 29.16
151 4 22.68 0.00 32.40
152 2 22.68 0.00 35.64
153 3 22.68 0.00 38.88
154 2 22.68 0.00 42.12
155 3 22.68 0.00 45.36
156 3 22.68 0.00 48.60
157 3 22.68 0.00 51.84
158 4 22.68 0.00 55.08
159 4 22.68 0.00 58.32
160 4 22.68 0.00 61.56
161 2 25.92 0.00 0.00
162 4 25.92 0.00 3.24
163 3 25.92 0.00 6.48
164 4 25.92 0.00 9.72
165 4 25.92 0.00 12.96
166 3 25.92 0.00 16.20
167 2 25.92 0.00 19.44
168 3 25.92 0.00 22.68
169 2 25.92 0.00 25.92
170 3 25.92 0.00 29.16
171 3 25.92 0.00 32.40
172 3 25.92 0.00 35.64
173 2 25.92 0.00 38.88
174 2 25.92 0.00 42.12
175 2 25.92 0.00 45.36
176 4 25.92 0.00 48.60
177 4 25.92 0.00 51.84
178 3 25.92 0.00 55.08
179 2 25.92 0.00 58.32
180 4 25.92 0.00 61.56
181 3 29.16 0.00 0.00
182 3 29.16 0.00 3.24
183 3 29.16 0.00 6.48
184 2 29.16 0.00 9.72
185 4 29.16 0.00 12.96
186 3 29.16 0.00 16.20
187 4 29.16 0.00 19.44
188 2 29.16 0.00 22.68
189 3 29.16 0.00 25.92
190 2 29.16 0.00 29.16
191 4 29.16 0.00 32.40
192 2 29.16 0.00 35.64
193 2 29.16 0.00 38.88
194 3 29.16 0.00 42.12
195 3 29.16 0.00 45.36
196 3 29.16 0.00 48.60
197 3 29.16 0.00 51.84
198 3 29.16 0.00 55.08
199 4 29.16 0.00 58.32
200 3 29.16 0.00 61.56
201 2 32.40 0.00 0.00
202 3 32.40 0.00 3.24
203 3 32.40 0.00 6.48
204 4 32.40 0.00 9.72
205 2 32.40 0.00 12.96
206 3 32.40 0.00 16.20
207 2 32.40 0.00 19.44
208 3 32.40 0.00 22.68
209 3 32.40 0.00 25.92
210 2 32.40 0.00 29.16
211 3 32.40 0.00 32.40
212 4 32.40 0.00 35.64
213 3 32.40 0.00 38.88
214 3 32.40 0.00 42.12
215 3 32.40 0.00 45.36
216 3 32.40 0.00 48.60
217 4 32.40 0.00 51.84
218 3 32.40 0.00 55.08
219 3 32.40 0.00 58.32
220 2 32.40 0.00 61.56
221 3 35.64 0.00 0.00
222 4 35.64 0.00 3.24
223 3 35.64 0.00 6.48
224 3 35.64 0.00 9.72
225 4 35.64 0.00 12.96
226 4 35.64 0.00 16.20
227 3 35.64 0.00 19.44
228 3 35.64 0.00 22.68
229 2 35.64 0.00 25.92
230 4 35.64 0.00 29.16
231 4 35.64 0.00 32.40
232 2 35.64 0.00 35.64
233 2 35.64 0.00 38.88
234 2 35.64 0.00 42.12
235 4 35.64 0.00 45.36
236 2 35.64 0.00 48.60
237 4 35.64 0.00 51.84
238 3 35.64 0.00 55.08
239 2 35.64 0.00 58.32
240 3 35.64 0.00 61.56
241 3 38.88 0.00 0.00
242 2 38.88 0.00 3.24
243 3 38.88 0.00 6.48
244 3 38.88 0.00 9.72
245 2 38.88 0.00 12.96
246 3 38.88 0.00 16.20
247 4 38.88 0.00 19.44
248 4 38.88 0.00 22.68
249 3 38.88 0.00 25.92
250 4 38.88 0.00 29.16
251 4 38.88 0.00 32.40
252 2 38.88 0.00 35.64
253 3 38.88 0.00 38.88
254 2 38.88 0.00 42.12
255 2 38.88 0.00 45.36
256 2 38.88 0.00 48.60
257 2 38.88 0.00 51.84
258 3 38.88 0.00 55.08
259 2 38.88 0.00 58.32
260 3 38.88 0.00 61.56
261 3 42.12 0.00 0.00
262 2 42.12 0.00 3.24
263 4 42.12 0.00 6.48
264 3 42.12 0.00 9.72
265 3 42.12 0.00 12.96
266 4 42.12 0.00 16.20
267 4 42.12 0.00 19.44
268 2 42.12 0.00 22.68
269 3 42.12 0.00 25.92
270 4 42.12 0.00 29.16
271 4 42.12 0.00 32.40
272 3 42.12 0.00 35.64
273 4 42.12 0.00 38.88
274 3 42.12 0.00 42.12
275 3 42.12 0.00 45.36
276 3 42.12 0.00 48.60
277 4 42.12 0.00 51.84
278 2 42.12 0.00 55.08
279 4 42.12 0.00 58.32
280 4 42.12 0.00 61.56
281 4 45.36 0.00 0.00
282 4 45.36 0.00 3.24
283 3 45.36 0.00 6.48
284 3 45.36 0.00 9.72
285 4 45.36 0.00 12.96
286 2 45.36 0.00 16.20
287 2 45.36 0.00 19.44
288 4 45.36 0.00 22.68
289 4 45.36 0.00 25.92
290 2 45.36 0.00 29.16
291 3 45.36 0.00 32.40
292 2 45.36 0.00 35.64
293 2 45.36 0.00 38.88
294 3 45.36 0.00 42.12
295 2 45.36 0.00 45.36
296 3 45.36 0.00 48.60
297 4 45.36 0.00 51.84
298 3 45.36 0.00 55.08
299 3 45.36 0.00 58.32
300 3 45.36 0.00 61.56
301 3 48.60 0.00 0.00
302 3 48.60 0.00 3.24
303 2 48.60 0.00 6.48
304 4 48.60 0.00 9.72
305 2 48.60 0.00 12.96
306 3 48.60 0.00 16.20
307 3 48.60 0.00 19.44
308 2 48.60 0.00 22.68
309 3 48.60 0.00 25.92
310 2 48.60 0.00 29.16
311 3 48.60 0.00 32.40
312 2 48.60 0.00 35.64
313 4 48.60 0.00 38.88
314 2 48.60 0.00 42.12
315 2 48.60 0.00 45.36
316 3 48.60 0.00 48.60
317 2 48.60 0.00 51.84
318 3 48.60 0.00 55.08
319 3 48.60 0.00 58.32
320 2 48.60 0.00 61.56
321 2 51.84 0.00 0.00
322 4 51.84 0.00 3.24
323 2 51.84 0.00 6.48
324 3 51.84 0.00 9.72
325 4 51.84 0.00 12.96
326 4 51.84 0.00 16.20
327 2 51.84 0.00 19.44
328 4 51.84 0.00 22.68
329 3 51.84 0.00 25.92
330 4 51.84 0.00 29.16
331 4 51.84 0.00 32.40
332 4 51.84 0.00 35.64
333 3 51.84 0.00 38.88
334 3 51.84 0.00 42.12
335 2 51.84 0.00 45.36
336 3 51.84 0.00 48.60
337 3 51.84 0.00 51.84
338 2 51.84 0.00 55.08
339 4 51.84 0.00 58.32
340 2 51.84 0.00 61.56
341 3 55.08 0.00 0.00
342 2 55.08 0.00 3.24
343 3 55.08 0.00 6.48
344 4 55.08 0.00 9.72
345 3 55.08 0.00 12.96
346 4 55.08 0.00 16.20
347 3 55.08 0.00 19.44
348 3 55.08 0.00 22.68
349 3 55.08 0.00 25.92
350 4 55.08 0.00 29.16
351 2 55.08 0.00 32.40
352 3 55.08 0.00 35.64
353 3 55.08 0.00 38.88
354 2 55.08 0.00 42.12
355 2 55.08 0.00 45.36
356 3 55.08 0.00 48.60
357 2 55.08 0.00 51.84
358 2 55.08 0.00 55.08
359 4 55.08 0.00 58.32
360 3 55.08 0.00 61.56
361 4 58.32 0.00 0.00
362 3 58.32 0.00 3.24
363 3 58.32 0.00 6.48
364 4 58.32 0.00 9.72
365 3 58.32 0.00 12.96
366 3 58.32 0.00 16.20
367 2 58.32 0.00 19.44
368 3 58.32 0.00 22.68
369 2 58.32 0.00 25.92
370 2 58.32 0.00 29.16
371 3 58.32 0.00 32.40
372 3 58.32 0.00 35.64
373 2 58.32 0.00 38.88
374 4 58.32 0.00 42.12
375 3 58.32 0.00 45.36
376 3 58.32 0.00 48.60
377 2 58.32 0.00 51.84
378 4 58.32 0.00 55.08
379 4 58.32 0.00 58.32
380 3 58.32 0.00 61.56
381 3 61.56 0.00 0.00
382 2 61.56 0.00 3.24
383 4 61.56 0.00 6.48
384 3 61.56 0.00 9.72
385 2 61.56 0.00 12.96
386 2 61.56 0.00 16.20
387 2 61.56 0.00 19.44
388 4 61.56 0.00 22.68
389 2 61.56 0.00 25.92
390 2 61.56 0.00 29.16
391 3 61.56 0.00 32.40
392 2 61.56 0.00 35.64
393 3 61.56 0.00 38.88
394 2 61.56 0.00 42.12
395 4 61.56 0.00 45.36
396 2 61.56 0.00 48.60
397 2 61.56 0.00 51.84
398 2 61.56 0.00 55.08
399 4 61.56 0.00 58.32
400 3 61.56 0.00 61.56
401 4 0.00 3.24 0.00
402 2 0.00 3.24 3.24
403 4 0.00 3.24 6.48
404 4 0.00 3.24 9.72
405 3 0.00 3.24 12.96
406 2 0.00 3.24 16.20
407 2 0.00 3.24 19.44
408 3 0.00 3.24 22.68
409 2 0.00 3.24 25.92
410 2 0.00 3.24 29.16
411 4 0.00 3.24 32.40
412 3 0.00 3.24 35.64
413 2 0.00 3.24 38.88
414 4 0.00 3.24 42.12
415 4 0.00 3.24 45.36
416 2 0.00 3.24 48.60
417 2 0.00 3.24 51.84
418 4 0.00 3.24 55.08
419 4 0.00 3.24 58.32
420 4 0.00 3.24 61.56
421 2 3.24 3.24 0.00
422 3 3.24 3.24 3.24
423 3 3.24 3.24 6.48
424 3 3.24 3.24 9.72
425 3 3.24 3.24 12.96
426 4 3.24 3.24 16.20
427 2 3.24 3.24 19.44
428 3 3.24 3.24 22.68
429 2 3.24 3.24 25.92
430 3 3.24 3.24 29.16
431 4 3.24 3.24 32.40
432 2 3.24 3.24 35.64
433 3 3.24 3.24 38.88
434 3 3.24 3.24 42.12
435 3 3.24 3.24 45.36
436 3 3.24 3.24 48.60
437 2 3.24 3.24 51.84
438 2 3.24 3.24 55.08
439 4 3.24 3.24 58.32
440 4 3.24 3.24 61.56
441 2 6.48 3.24 0.00
442 3 6.48 3.24 3.24
443 3 6.48 3.24 6.48
444 2 6.48 3.24 9.72
445 2 6.48 3.24 12.96
446 3 6.48 3.24 16.20
447 2 6.48 3.24 19.44
448 2 6.48 3.24 22.68
449 4 6.48 3.24 25.92
450 3 6.48 3.24 29.16
451 2 6.48 3.24 32.40
452 3 6.48 3.24 35.64
453 3 6.48 3.24 38.88
454 3 6.48 3.24 42.12
455 2 6.48 3.24 45.36
456 2 6.48 3.24 48.60
457 2 6.48 3.24 51.84
458 2 6.48 3.24 55.08
459 3 6.48 3.24 58.32
460 4 6.48 3.24 61.56
461 3 9.72 3.24 0.00
462 3 9.72 3.24 3.24
463 2 9.72 3.24 6.48
464 2 9.72 3.24 9.72
465 2 9.72 3.24 12.96
466 2 9.72 3.24 16.20
467 4 9.72 3.24 19.44
468 4 9.72 3.24 22.68
469 4 9.72 3.24 25.92
470 2 9.72 3.24 29.16
471 2 9.72 3.24 32.40
472 3 9.72 3.24 35.64
473 3 9.72 3.24 38.88
474 4 9.72 3.24 42.12
475 2 9.72 3.24 45.36
476 2 9.72 3.24 48.60
477 2 9.72 3.24 51.84
478 3 9.72 3.24 55.08
479 3 9.72 3.24 58.32
480 2 9.72 3.24 61.56
481 4 12.96 3.24 0.00
482 4 12.96 3.24 3.24
483 3 12.96 3.24 6.48
484 4 12.96 3.24 9.72
485 3 12.96 3.24 12.96
486 4 12.96 3.24 16.20
487 3 12.96 3.24 19.44
488 2 12.96 3.24 22.68
489 4 12.96 3.24 25.92
490 2 12.96 3.24 29.16
491 3 12.96 3.24 32.40
492 2 12.96 3.24 35.64
493 4 12.96 3.24 38.88
494 3 12.96 3.24 42.12
495 2 12.96 3.24 45.36
496 3 12.96 3.24 48.60
497 2 12.96 3.24 51.84
498 4 12.96 3.24 55.08
499 2 12.96 3.24 58.32
500 2 12.96 3.24 61.56
501 3 16.20 3.24 0.00
502 3 16.20 3.24 3.24
503 3 16.20 3.24 6.48
504 3 16.20 3.24 9.72
505 2 16.20 3.24 12.96
506 2 16.20 3.24 16.20
507 3 16.20 3.24 19.44
508 3 16.20 3.24 22.68
509 2 16.20 3.24 25.92
510 3 16.20 3.24 29.16
511 4 16.20 3.24 32.40
512 2 16.20 3.24 35.64
513 3 16.20 3.24 38.88
514 4 16.20 3.24 42.12
515 2 16.20 3.24 45.36
516 4 16.20 3.24 48.60
517 2 16.20 3.24 51.84
518 3 16.20 3.24 55.08
519 4 16.20 3.24 58.32
520 4 16.20 3.24 61.56
521 2 19.44 3.24 0.00
522 2 19.44 3.24 3.24
523 4 19.44 3.24 6.48
524 3 19.44 3.24 9.72
525 2 19.44 3.24 12.96
526 3 19.44 3.24 16.20
527 3 19.44 3.24 19.44
528 3 19.44 3.24 22.68
529 4 19.44 3.24 25.92
530 2 19.44 3.24 29.16
531 3 19.44 3.24 32.40
532 3 19.44 3.24 35.64
533 3 19.44 3.24 38.88
534 4 19.44 3.24 42.12
535 4 19.44 3.24 45.36
536 2 19.44 3.24 48.60
537 2 19.44 3.24 51.84
538 2 19.44 3.24 55.08
539 2 19.44 3.24 58.32
540 3 19.44 3.24 61.56
541 3 22.68 3.24 0.00
542 2 22.68 3.24 3.24
543 2 22.68 3.24 6.48
544 2 22.68 3.24 9.72
545 2 22.68 3.24 12.96
546 3 22.68 3.24 16.20
547 4 22.68 3.24 19.44
548 4 22.68 3.24 22.68
549 4 22.68 3.24 25.92
550 4 22.68 3.24 29.16
551 3 22.68 3.24 32.40
552 3 22.68 3.24 35.64
553 3 22.68 3.24 38.88
554 4 22.68 3.24 42.12
555 3 22.68 3.24 45.36
556 2 22.68 3.24 48.60
557 2 22.68 3.24 51.84
558 4 22.68 3.24 55.08
559 3 22.68 3.24 58.32
560 3 22.68 3.24 61.56
561 2 25.92 3.24 0.00
562 2 25.92 3.24 3.24
563 4 25.92 3.24 6.48
564 3 25.92 3.24 9.72
565 3 25.92 3.24 12.96
566 4 25.92 3.24 16.20
567 2 25.92 3.24 19.44
568 4 25.92 3.24 22.68
569 4 25.92 3.24 25.92
570 3 25.92 3.24 29.16
571 2 25.92 3.24 32.40
572 2 25.92 3.24 35.64
573 4 25.92 3.24 38.88
574 3 25.92 3.24 42.12
575 3 25.92 3.24 45.36
576 2 25.92 3.24 48.60
577 4 25.92 3.24 51.84
578 2 25.92 3.24 55.08
579 2 25.92 3.24 58.32
580 3 25.92 3.24 61.56
581 4 29.16 3.24 0.00
582 2 29.16 3.24 3.24
583 2 29.16 3.24 6.48
584 3 29.16 3.24 9.72
585 4 29.16 3.24 12.96
586 2 29.16 3.24 16.20
587 2 29.16 3.24 19.44
588 4 29.16 3.24 22.68
589 3 29.16 3.24 25.92
590 2 29.16 3.24 29.16
591 4 29.16 3.24 32.40
592 2 29.16 3.24 35.64
593 3 29.16 3.24 38.88
594 3 29.16 3.24 42.12
595 4 29.16 3.24 45.36
596 4 29.16 3.24 48.60
597 2 29.16 3.24 51.84
598 4 29.16 3.24 55.08
599 3 29.16 3.24 58.32
600 4 29.16 3.24 61.56
601 4 32.40 3.24 0.00
602 2 32.40 3.24 3.24
603 4 32.40 3.24 6.48
604 3 32.40 3.24 9.72
605 4 32.40 3.24 12.96
606 4 32.40 3.24 16.20
607 4 32.40 3.24 19.44
608 3 32.40 3.24 22.68
609 3 32.40 3.24 25.92
610 3 32.40 3.24 29.16
611 3 32.40 3.24 32.40
612 3 32.40 3.24 35.64
613 2 32.40 3.24 38.88
614 3 32.40 3.24 42.12
615 3 32.40 3.24 45.36
616 3 32.40 3.24 48.60
617 3 32.40 3.24 51.84
618 4 32.40 3.24 55.08
619 2 32.40 3.24 58.32
620 3 32.40 3.24 61.56
621 4 35.64 3.24 0.00
622 4 35.64 3.24 3.24
623 4 35.64 3.24 6.48
624 3 35.64 3.24 9.72
625 2 35.64 3.24 12.96
626 3 35.64 3.24 16.20
627 2 35.64 3.24 19.44
628 3 35.64 3.24 22.68
629 3 35.64 3.24 25.92
630 4 35.64 3.24 29.16
631 3 35.64 3.24 32.40
632 4 35.64 3.24 35.64
633 3 35.64 3.24 38.88
634 3 35.64 3.24 42.12
635 3 35.64 3.24 45.36
636 3 35.64 3.24 48.60
637 2 35.64 3.24 51.84
638 2 35.64 3.24 55.08
639 3 35.64 3.24 58.32
640 3 35.64 3.24 61.56
641 2 38.88 3.24 0.00
642 2 38.88 3.24 3.24
643 2 38.88 3.24 6.48
644 3 38.88 3.24 9.72
645 3 38.88 3.24 12.96
646 4 38.88 3.24 16.20
647 2 38.88 3.24 19.44
648 2 38.88 3.24 22.68
649 3 38.88 3.24 25.92
650 3 38.88 3.24 29.16
651 4 38.88 3.24 32.40
652 2 38.88 3.24 35.64
653 4 38.88 3.24 38.88
654 3 38.88 3.24 42.12
655 4 38.88 3.24 45.36
656 2 38.88 3.24 48.60
657 2 38.88 3.24 51.84
658 4 38.88 3.24 55.08
659 4 38.88 3.24 58.32
660 3 38.88 3.24 61.56
661 2 42.12 3.24 0.00
662 3 42.12 3.24 3.24
663 3 42.12 3.24 6.48
664 2 42.12 3.24 9.72
665 2 42.12 3.24 12.96
666 3 42.12 3.24 16.20
667 2 42.12 3.24 19.44
668 2 42.12 3.24 22.68
669 4 42.12 3.24 25.92
670 3 42.12 3.24 29.16
671 3 42.12 3.24 32.40
672 4 42.12 3.24 35.64
673 2 42.12 3.24 38.88
674 3 42.12 3.24 42.12
675 4 42.12 3.24 45.36
676 2 42.12 3.24 48.60
677 2 42.12 3.24 51.84
678 3 42.12 3.24 55.08
679 2 42.12 3.24 58.32
680 3 42.12 3.24 61.56
681 2 45.36 3.24 0.00
682 3 45.36 3.24 3.24
683 4 45.36 3.24 6.48
684 3 45.36 3.24 9.72
685 2 45.36 3.24 12.96
686 3 45.36 3.24 16.20
687 2 45.36 3.24 19.44
688 3 45.36 3.24 22.68
689 4 45.36 3.24 25.92
690 3 45.36 3.24 29.16
691 4 45.36 3.24 32.40
692 3 45.36 3.24 35.64
693 2 45.36 3.24 38.88
694 3 45.36 3.24 42.12
695 3 45.36 3.24 45.36
696 2 45.36 3.24 48.60
697 3 45.36 3.24 51.84
698 4 45.36 3.24 55.08
699 4 45.36 3.24 58.32
700 4 45.36 3.24 61.56
701 4 48.60 3.24 0.00
702 4 48.60 3.24 3.24
703 3 48.60 3.24 6.48
704 4 48.60 3.24 9.72
705 4 48.60 3.24 12.96
706 2 48.60 3.24 16.20
707 3 48.60 3.24 19.44
708 2 48.60 3.24 22.68
709 4 48.60 3.24 25.92
710 4 48.60 3.24 29.16
711 3 48.60 3.24 32.40
712 2 48.60 3.24 35.64
713 3 48.60 3.24 38.88
714 4 48.60 3.24 42.12
715 2 48.60 3.24 45.36
716 2 48.60 3.24 48.60
717 3 48.60 3.24 51.84
718 3 48.60 3.24 55.08
719 4 48.60 3.24 58.32
720 4 48.60 3.24 61.56
721 2 51.84 3.24 0.00
722 2 51.84 3.24 3.24
723 3 51.84 3.24 6.48
724 3 51.84 3.24 9.72
725 2 51.84 3.24 12.96
726 2 51.84 3.24 16.20
727 2 51.84 3.24 19.44
728 2 51.84 3.24 22.68
729 2 51.84 3.24 25.92
730 3 51.84 3.24 29.16
731 3 51.84 3.24 32.40
732 4 51.84 3.24 35.64
733 3 51.84 3.24 38.88
734 3 51.84 3.24 42.12
735 4 51.84 3.24 45.36
736 4 51.84 3.24 48.60
737 3 51.84 3.24 51.84
738 3 51.84 3.24 55.08
739 3 51.84 3.24 58.32
740 3 51.84 3.24 61.56
741 2 55.08 3.24 0.00
742 4 55.08 3.24 3.24
743 2 55.08 3.24 6.48
744 3 55.08 3.24 9.72
745 4 55.08 3.24 12.96
746 3 55.08 3.24 16.20
747 2 55.08 3.24 19.44
748 3 55.08 3.24 22.68
749 4 55.08 3.24 25.92
750 4 55.08 3.24 29.16
751 2 55.08 3.24 32.40
752 3 55.08 3.24 35.64
753 2 55.08 3.24 38.88
754 4 55.08 3.24 42.12
755 3 55.08 3.24 45.36
756 3 55.08 3.24 48.60
757 4 55.08 3.24 51.84
758 3 55.08 3.24 55.08
759 3 55.08 3.24 58.32
760 3 55.08 3.24 61.56
761 3 58.32 3.24 0.00
762 3 58.32 3.24 3.24
763 3 58.32 3.24 6.48
764 4 58.32 3.24 9.72
765 2 58.32 3.24 12.96
766 4 58.32 3.24 16.20
767 4 58.32 3.24 19.44
768 2 58.32 3.24 22.68
769 2 58.32 3.24 25.92
770 2 58.32 3.24 29.16
771 4 58.32 3.24 32.40
772 3 58.32 3.24 35.64
773 4 58.32 3.24 38.88
774 4 58.32 3.24 42.12
775 2 58.32 3.24 45.36
776 2 58.32 3.24 48.60
777 2 58.32 3.24 51.84
778 2 58.32 3.24 55.08
779 4 58.32 3.24 58.32
780 4 58.32 3.24 61.56
781 2 61.56 3.24 0.00
782 4 61.56 3.24 3.24
783 4 61.56 3.24 6.48
784 2 61.56 3.24 9.72
785 2 61.56 3.24 12.96
786 3 61.56 3.24 16.20
787 2 61.56 3.24 19.44
788 2 61.56 3.24 22.68
789 2 61.56 3.24 25.92
790 4 61.56 3.24 29.16
791 2 61.56 3.24 32.40
792 3 61.56 3.24 35.64
793 4 61.56 3.24 38.88
794 2 61.56 3.24 42.12
795 4 61.56 3.24 45.36
796 3 61.56 3.24 48.60
797 4 61.56 3.24 51.84
798 2 61.56 3.24 55.08
799 3 61.56 3.24 58.32
800 2 61.56 3.24 61.56
801 2 0.00 6.48 0.00
802 3 0.00 6.48 3.24
803 2 0.00 6.48 6.48
804 4 0.00 6.48 9.72
805 4 0.00 6.48 12.96
806 2 0.00 6.48 16.20
807 4 0.00 6.48 19.44
808 4 0.00 6.48 22.68
809 4 0.00 6.48 25.92
810 2 0.00 6.48 29.16
811 3 0.00 6.48 32.40
812 2 0.00 6.48 35.64
813 4 0.00 6.48 38.88
814 2 0.00 6.48 42.12
815 3 0.00 6.48 45.36
816 4 0.00 6.48 48.60
817 4 0.00 6.48 51.84
818 4 0.00 6.48 55.08
819 4 0.00 6.48 58.32
820 2 0.00 6.48 61.56
821 4 3.24 6.48 0.00
822 2 3.24 6.48 3.24
823 3 3.24 6.48 6.48
824 3 3.24 6.48 9.72
825 4 3.24 6.48 12.96
826 4 3.24 6.48 16.20
827 3 3.24 6.48 19.44
828 2 3.24 6.48 22.68
829 4 3.24 6.48 25.92
830 3 3.24 6.48 29.16
831 3 3.24 6.48 32.40
832 4 3.24 6.48 35.64
833 4 3.24 6.48 38.88
834 2 3.24 6.48 42.12
835 3 3.24 6.48 45.36
836 2 3.24 6.48 48.60
837 2 3.24 6.48 51.84
838 4 3.24 6.48 55.08
839 4 3.24 6.48 58.32
840 3 3.24 6.48 61.56
841 4 6.48 6.48 0.00
842 2 6.48 6.48 3.24
843 3 6.48 6.48 6.48
844 4 6.48 6.48 9.72
845 2 6.48 6.48 12.96
846 2 6.48 6.48 16.20
847 3 6.48 6.48 19.44
848 2 6.48 6.48 22.68
849 2 6.48 6.48 25.92
850 2 6.48 6.48 29.16
851 2 6.48 6.48 32.40
852 2 6.48 6.48 35.64
853 3 6.48 6.48 38.88
854 2 6.48 6.48 42.12
855 4 6.48 6.48 45.36
856 3 6.48 6.48 48.60
857 2 6.48 6.48 51.84
858 4 6.48 6.48 55.08
859 2 6.48 6.48 58.32
860 3 6.48 6.48 61.56
861 3 9.72 6.48 0.00
862 4 9.72 6.48 3.24
863 2 9.72 6.48 6.48
864 4 9.72 6.48 9.72
865 4 9.72 6.48 12.96
866 2 9.72 6.48 16.20
867 3 9.72 6.48 19.44
868 3 9.72 6.48 22.68
869 4 9.72 6.48 25.92
870 4 9.72 6.48 29.16
871 3 9.72 6.48 32.40
872 3 9.72 6.48 35.64
873 3 9.72 6.48 38.88
874 4 9.72 6.48 42.12
875 4 9.72 6.48 45.36
876 3 9.72 6.48 48.60
877 4 9.72 6.48 51.84
878 2 9.72 6.48 55.08
879 4 9.72 6.48 58.32
880 4 9.72 6.48 61.56
881 2 12.96 6.48 0.00
882 2 12.96 6.48 3.24
883 3 12.96 6.48 6.48
884 3 12.96 6.48 9.72
885 3 12.96 6.48 12.96
886 3 12.96 6.48 16.20
887 3 12.96 6.48 19.44
888 2 12.96 6.48 22.68
889 3 12.96 6.48 25.92
890 4 12.96 6.48 29.16
891 2 12.96 6.48 32.40
892 3 12.96 6.48 35.64
893 3 12.96 6.48 38.88
894 2 12.96 6.48 42.12
895 4 12.96 6.48 45.36
896 2 12.96 6.48 48.60
897 2 12.96 6.48 51.84
898 4 12.96 6.48 55.08
899 4 12.96 6.48 58.32
900 3 12.96 6.48 61.56
901 4 16.20 6.48 0.00
902 3 16.20 6.48 3.24
903 4 16.20 6.48 6.48
904 3 16.20 6.48 9.72
905 4 16.20 6.48 12.96
906 3 16.20 6.48 16.20
907 4 16.20 6.48 19.44
908 4 16.20 6.48 22.68
909 4 16.20 6.48 25.92
910 3 16.20 6.48 29.16
911 3 16.20 6.48 32.40
912 2 16.20 6.48 35.64
913 4 16.20 6.48 38.88
914 4 16.20 6.48 42.12
915 2 16.20 6.48 45.36
916 4 16.20 6.48 48.60
917 4 16.20 6.48 51.84
918 3 16.20 6.48 55.08
919 3 16.20 6.48 58.32
920 4 16.20 6.48 61.56
921 2 19.44 6.48 0.00
922 3 19.44 6.48 3.24
923 2 19.44 6.48 6.48
924 4 19.44 6.48 9.72
925 3 19.44 6.48 12.96
926 3 19.44 6.48 16.20
927 4 19.44 6.48 19.44
928 3 19.44 6.48 22.68
929 3 19.44 6.48 25.92
930 4 19.44 6.48 29.16
931 3 19.44 6.48 32.40
932 4 19.44 6.48 35.64
933 3 19.44 6.48 38.88
934 2 19.44 6.48 42.12
935 4 19.44 6.48 45.36
936 4 19.44 6.48 48.60
937 4 19.44 6.48 51.84
938 2 19.44 6.48 55.08
939 2 19.44 6.48 58.32
940 3 19.44 6.48 61.56
941 4 22.68 6.48 0.00
942 4 22.68 6.48 3.24
943 2 22.68 6.48 6.48
944 2 22.68 6.48 9.72
945 4 22.68 6.48 12.96
946 3 22.68 6.48 16.20
947 4 22.68 6.48 19.44
948 4 22.68 6.48 22.68
949 4 22.68 6.48 25.92
950 4 22.68 6.48 29.16
951 3 22.68 6.48 32.40
952 3 22.68 6.48 35.64
953 3 22.68 6.48 38.88
954 4 22.68 6.48 42.12
955 3 22.68 6.48 45.36
956 3 22.68 6.48 48.60
957 2 22.68 6.48 51.84
958 4 22.68 6.48 55.08
959 2 22.68 6.48 58.32
960 2 22.68 6.48 61.56
961 3 25.92 6.48 0.00
962 2 25.92 6.48 3.24
963 3 25.92 6.48 6.48
964 3 25.92 6.48 9.72
965 3 25.92 6.48 12.96
966 2 25.92 6.48 16.20
967 3 25.92 6.48 19.44
968 2 25.92 6.48 22.68
969 4 25.92 6.48 25.92
970 3 25.92 6.48 29.16
971 2 25.92 6.48 32.40
972 3 25.92 6.48 35.64
973 4 25.92 6.48 38.88
974 3 25.92 6.48 42.12
975 4 25.92 6.48 45.36
976 4 25.92 6.48 48.60
977 3 25.92 6.48 51.84
978 2 25.92 6.48 55.08
979 4 25.92 6.48 58.32
980 2 25.92 6.48 61.56
981 3 29.16 6.48 0.00
982 4 29.16 6.48 3.24
983 4 29.16 6.48 6.48
984 4 29.16 6.48 9.72
985 4 29.16 6.48 12.96
986 2 29.16 6.48 16.20
987 4 29.16 6.48 19.44
988 4 29.16 6.48 22.68
989 3 29.16 6.48 25.92
990 2 29.16 6.48 29.16
991 2 29.16 6.48 32.40
992 2 29.16 6.48 35.64
993 2 29.16 6.48 38.88
994 3 29.16 6.48 42.12
995 2 29.16 6.48 45.36
996 3 29.16 6.48 48.60
997 3 29.16 6.48 51.84
998 2 29.16 6.48 55.08
999 3 29.16 6.48 58.32
1000 3 29.16 6.48 61.56
1001 4 32.40 6.48 0.00
1002 2 32.40 6.48 3.24
1003 4 32.40 6.48 6.48
1004 3 32.40 6.48 9.72
1005 2 32.40 6.48 12.96
1006 2 32.40 6.48 16.20
1007 3 32.40 6.48 19.44
1008 2 32.40 6.48 22.68
1009 4 32.40 6.48 25.92
1010 3 32.40 6.48 29.16
1011 2 32.40 6.48 32.40
1012 2 32.40 6.48 35.64
1013 2 32.40 6.48 38.88
1014 3 32.40 6.48 42.12
1015 2 32.40 6.48 45.36
1016 3 32.40 6.48 48.60
1017 3 32.40 6.48 51.84
1018 4 32.40 6.48 55.08
1019 2 32.40 6.48 58.32
1020 3 32.40 6.48 61.56
1021 4 35.64 6.48 0.00
1022 3 35.64 6.48 3.24
1023 3 35.64 6.48 6.48
1024 2 35.64 6.48 9.72
1025 2 35.64 6.48 12.96
1026 2 35.64 6.48 16.20
1027 3 35.64 6.48 19.44
1028 3 35.64 6.48 22.68
1029 2 35.64 6.48 25.92
1030 3 35.64 6.48 29.16
1031 4 35.64 6.48 32.40
1032 3 35.64 6.48 35.64
1033 4 35.64 6.48 38.88
1034 2 35.64 6.48 42.12
1035 4 35.64 6.48 45.36
1036 2 35.64 6.48 48.60
1037 2 35.64 6.48 51.84
1038 2 35.64 6.48 55.08
1039 3 35.64 6.48 58.32
1040 3 35.64 6.48 61.56
1041 3 38.88 6.48 0.00
1042 2 38.88 6.48 3.24
1043 4 38.88 6.48 6.48
1044 2 38.88 6.48 9.72
1045 3 38.88 6.48 12.96
1046 3 38.88 6.48 16.20
1047 3 38.88 6.48 19.44
1048 3 38.88 6.48 22.68
1049 4 38.88 6.48 25.92
1050 4 38.88 6.48 29.16
1051 4 38.88 6.48 32.40
1052 4 38.88 6.48 35.64
1053 3 38.88 6.48 38.88
1054 2 38.88 6.48 42.12
1055 4 38.88 6.48 45.36
1056 3 38.88 6.48 48.60
1057 2 38.88 6.48 51.84
1058 4 38.88 6.48 55.08
1059 3 38.88 6.48 58.32
1060 4 38.88 6.48 61.56
1061 2 42.12 6.48 0.00
1062 2 42.12 6.48 3.24
1063 2 42.12 6.48 6.48
1064 3 42.12 6.48 9.72
1065 4 42.12 6.48 12.96
1066 4 42.12 6.48 16.20
1067 4 42.12 6.48 19.44
1068 2 42.12 6.48 22.68
1069 3 42.12 6.48 25.92
1070 2 42.12 6.48 29.16
1071 2 42.12 6.48 32.40
1072 3 42.12 6.48 35.64
1073 4 42.12 6.48 38.88
1074 2 42.12 6.48 42.12
1075 4 42.12 6.48 45.36
1076 4 42.12 6.48 48.60
1077 2 42.12 6.48 51.84
1078 2 42.12 6.48 55.08
1079 3 42.12 6.48 58.32
1080 3 42.12 6.48 61.56
1081 3 45.36 6.48 0.00
1082 2 45.36 6.48 3.24
1083 2 45.36 6.48 6.48
1084 4 45.36 6.48 9.72
1085 4 45.36 6.48 12.96
1086 3 45.36 6.48 16.20
1087 4 45.36 6.48 19.44
1088 4 45.36 6.48 22.68
1089 2 45.36 6.48 25.92
1090 3 45.36 6.48 29.16
1091 4 45.36 6.48 32.40
1092 4 45.36 6.48 35.64
1093 3 45.36 6.48 38.88
1094 4 45.36 6.48 42.12
1095 3 45.36 6.48 45.36
1096 2 45.36 6.48 48.60
1097 3 45.36 6.48 51.84
1098 3 45.36 6.48 55.08
1099 2 45.36 6.48 58.32
1100 3 45.36 6.48 61.56
1101 4 48.60 6.48 0.00
1102 4 48.60 6.48 3.24
1103 3 48.60 6.48 6.48
1104 2 48.60 6.48 9.72
1105 4 48.60 6.48 12.96
1106 3 48.60 6.48 16.20
1107 3 48.60 6.48 19.44
1108 3 48.60 6.48 22.68
1109 3 48.60 6.48 25.92
1110 3 48.60 6.48 29.16
1111 2 48.60 6.48 32.40
1112 4 48.60 6.48 35.64
1113 3 48.60 6.48 38.88
1114 3 48.60 6.48 42.12
1115 3 48.60 6.48 45.36
1116 3 48.60 6.48 48.60
1117 2 48.60 6.48 51.84
1118 2 48.60 6.48 55.08
1119 4 48.60 6.48 58.32
1120 2 48.60 6.48 61.56
1121 4 51.84 6.48 0.00
1122 3 51.84 6.48 3.24
1123 3 51.84 6.48 6.48
1124 3 51.84 6.48 9.72
1125 4 51.84 6.48 12.96
1126 4 51.84 6.48 16.20
1127 2 51.84 6.48 19.44
1128 3 51.84 6.48 22.68
1129 4 51.84 6.48 25.92
1130 4 51.84 6.48 29.16
1131 3 51.84 6.48 32.40
1132 2 51.84 6.48 35.64
1133 2 51.84 6.48 38.88
1134 2 51.84 6.48 42.12
1135 3 51.84 6.48 45.36
1136 4 51.84 6.48 48.60
1137 3 51.84 6.48 51.84
1138 2 51.84 6.48 55.08
1139 2 51.84 6.48 58.32
1140 4 51.84 6.48 61.56
1141 2 55.08 6.48 0.00
1142 3 55.08 6.48 3.24
1143 4 55.08 6.48 6.48
1144 3 55.08 6.48 9.72
1145 4 55.08 6.48 12.96
1146 4 55.08 6.48 16.20
1147 2 55.08 6.48 19.44
1148 3 55.08 6.48 22.68
1149 2 55.08 6.48 25.92
1150 3 55.08 6.48 29.16
1151 3 55.08 6.48 32.40
1152 4 55.08 6.48 35.64
1153 4 55.08 6.48 38.88
1154 3 55.08 6.48 42.12
1155 3 55.08 6.48 45.36
1156 4 55.08 6.48 48.60
1157 3 55.08 6.48 51.84
1158 4 55.08 6.48 55.08
1159 3 55.08 6.48 58.32
1160 2 55.08 6.48 61.56
1161 3 58.32 6.48 0.00
1162 2 58.32 6.48 3.24
1163 3 58.32 6.48 6.48
1164 3 58.32 6.48 9.72
1165 3 58.32 6.48 12.96
1166 4 58.32 6.48 16.20
1167 3 58.32 6.48 19.44
1168 3 58.32 6.48 22.68
1169 3 58.32 6.48 25.92
1170 3 58.32 6.48 29.16
1171 2 58.32 6.48 32.40
1172 3 58.32 6.48 35.64
1173 2 58.32 6.48 38.88
1174 4 58.32 6.48 42.12
1175 2 58.32 6.48 45.36
1176 3 58.32 6.48 48.60
1177 3 58.32 6.48 51.84
1178 2 58.32 6.48 55.08
1179 3 58.32 6.48 58.32
1180 2 58.32 6.48 61.56
1181 2 61.56 6.48 0.00
1182 4 61.56 6.48 3.24
1183 4 61.56 6.48 6.48
1184 2 61.56 6.48 9.72
1185 4 61.56 6.48 12.96
1186 3 61.56 6.48 16.20
1187 2 61.56 6.48 19.44
1188 4 61.56 6.48 22.68
1189 2 61.56 6.48 25.92
1190 2 61.56 6.48 29.16
1191 4 61.56 6.48 32.40
1192 3 61.56 6.48 35.64
1193 4 61.56 6.48 38.88
1194 4 61.56 6.48 42.12
1195 2 61.56 6.48 45.36
1196 2 61.56 6.48 48.60
1197 4 61.56 6.48 51.84
1198 4 61.56 6.48 55.08
1199 3 61.56 6.48 58.32
1200 2 61.56 6.48 61.56
1201 3 0.00 9.72 0.00
1202 4 0.00 9.72 3.24
1203 3 0.00 9.72 6.48
1204 3 0.00 9.72 9.72
1205 3 0.00 9.72 12.96
1206 4 0.00 9.72 16.20
1207 2 0.00 9.72 19.44
1208 4 0.00 9.72 22.68
1209 4 0.00 9.72 25.92
1210 4 0.00 9.72 29.16
1211 3 0.00 9.72 32.40
1212 2 0.00 9.72 35.64
1213 2 0.00 9.72 38.88
1214 3 0.00 9.72 42.12
1215 3 0.00 9.72 45.36
1216 4 0.00 9.72 48.60
1217 3 0.00 9.72 51.84
1218 2 0.00 9.72 55.08
1219 2 0.00 9.72 58.32
1220 4 0.00 9.72 61.56
1221 4 3.24 9.72 0.00
1222 3 3.24 9.72 3.24
1223 2 3.24 9.72 6.48
1224 2 3.24 9.72 9.72
1225 4 3.24 9.72 12.96
1226 4 3.24 9.72 16.20
1227 4 3.24 9.72 19.44
1228 3 3.24 9.72 22.68
1229 2 3.24 9.72 25.92
1230 3 3.24 9.72 29.16
1231 4 3.24 9.72 32.40
1232 2 3.24 9.72 35.64
1233 4 3.24 9.72 38.88
1234 4 3.24 9.72 42.12
1235 3 3.24 9.72 45.36
1236 3 3.24 9.72 48.60
1237 2 3.24 9.72 51.84
1238 4 3.24 9.72 55.08
1239 3 3.24 9.72 58.32
1240 3 3.24 9.72 61.56
1241 4 6.48 9.72 0.00
1242 3 6.48 9.72 3.24
1243 2 6.48 9.72 6.48
1244 3 6.48 9.72 9.72
1245 3 6.48 9.72 12.96
1246 4 6.48 9.72 16.20
1247 4 6.48 9.72 19.44
1248 4 6.48 9.72 22.68
1249 4 6.48 9.72 25.92
1250 3 6.48 9.72 29.16
1251 4 6.48 9.72 32.40
1252 2 6.48 9.72 35.64
1253 4 6.48 9.72 38.88
1254 2 6.48 9.72 42.12
1255 2 6.48 9.72 45.36
1256 2 6.48 9.72 48.60
1257 4 6.48 9.72 51.84
1258 4 6.48 9.72 55.08
1259 3 6.48 9.72 58.32
1260 4 6.48 9.72 61.56
1261 3 9.72 9.72 0.00
1262 3 9.72 9.72 3.24
1263 4 9.72 9.72 6.48
1264 4 9.72 9.72 9.72
1265 4 9.72 9.72 12.96
1266 2 9.72 9.72 16.20
1267 2 9.72 9.72 19.44
1268 2 9.72 9.72 22.68
1269 2 9.72 9.72 25.92
1270 2 9.72 9.72 29.16
1271 3 9.72 9.72 32.40
1272 2 9.72 9.72 35.64
1273 3 9.72 9.72 38.88
1274 4 9.72 9.72 42.12
1275 4 9.72 9.72 45.36
1276 2 9.72 9.72 48.60
1277 2 9.72 9.72 51.84
1278 4 9.72 9.72 55.08
1279 3 9.72 9.72 58.32
1280 3 9.72 9.72 61.56
1281 4 12.96 9.72 0.00
1282 2 12.96 9.72 3.24
1283 4 12.96 9.72 6.48
1284 2 12.96 9.72 9.72
1285 2 12.96 9.72 12.96
1286 4 12.96 9.72 16.20
1287 2 12.96 9.72 19.44
1288 2 12.96 9.72 22.68
1289 3 12.96 9.72 25.92
1290 2 12.96 9.72 29.16
1291 2 12.96 9.72 32.40
1292 3 12.96 9.72 35.64
1293 2 12.96 9.72 38.88
1294 3 12.96 9.72 42.12
1295 3 12.96 9.72 45.36
1296 2 12.96 9.72 48.60
1297 3 12.96 9.72 51.84
1298 3 12.96 9.72 55.08
1299 4 12.96 9.72 58.32
1300 2 12.96 9.72 61.56
1301 2 16.20 9.72 0.00
1302 3 16.20 9.72 3.24
1303 3 16.20 9.72 6.48
1304 3 16.20 9.72 9.72
1305 2 16.20 9.72 12.96
1306 4 16.20 9.72 16.20
1307 4 16.20 9.72 19.44
1308 3 16.20 9.72 22.68
1309 3 16.20 9.72 25.92
1310 4 16.20 9.72 29.16
1311 2 16.20 9.72 32.40
1312 4 16.20 9.72 35.64
1313 4 16.20 9.72 38.88
1314 2 16.20 9.72 42.12
1315 4 16.20 9.72 45.36